Title Card Required                                                     
Freq      RHF                                                         6-31G(d)            
Number of atoms                            I                6
Info1-9                                    I   N=           9
          20          13        1002           0           1         100
           6           1           2
Charge                                     I               -1
Multiplicity                               I                1
Number of electrons                        I               62
Number of alpha electrons                  I               31
Number of beta electrons                   I               31
Number of basis functions                  I               70
Number of independent functions            I               70
Number of point charges in /Mol/           I                0
Number of translation vectors              I                0
Atomic numbers                             I   N=           6
           6           1           1           1          17          35
Nuclear charges                            R   N=           6
  6.00000000E+00  1.00000000E+00  1.00000000E+00  1.00000000E+00  1.70000000E+01
  3.50000000E+01
Current cartesian coordinates              R   N=          18
 -2.91447573E+00  1.95235673E+00 -4.82802711E+00 -1.96239310E+00  2.91029632E-01
 -4.23198714E+00 -1.95250606E+00  3.31389123E+00 -5.94273385E+00 -4.83276089E+00
  2.24511113E+00 -4.32180533E+00 -1.58943883E+00  4.07128326E+00 -1.07623500E+00
 -4.30866022E+00 -2.77126020E-01 -8.77553307E+00
Force Field                                I                0
Int Atom Types                             I   N=           6
           0           0           0           0           0           0
MM charges                                 R   N=           6
  0.00000000E+00  0.00000000E+00  0.00000000E+00  0.00000000E+00  0.00000000E+00
  0.00000000E+00
Integer atomic weights                     I   N=           6
          12           1           1           1          35          79
Real atomic weights                        R   N=           6
  1.20000000E+01  1.00782504E+00  1.00782504E+00  1.00782504E+00  3.49688527E+01
  7.89183361E+01
Atom fragment info                         I   N=           6
           0           0           0           0           0           0
Atom residue num                           I   N=           6
           0           0           0           0           0           0
Nuclear spins                              I   N=           6
           0           1           1           1           3           3
Nuclear ZEff                               R   N=           6
 -3.60000000E+00 -1.00000000E+00 -1.00000000E+00 -1.00000000E+00 -1.42400000E+01
 -2.45000000E+01
Nuclear QMom                               R   N=           6
  0.00000000E+00  0.00000000E+00  0.00000000E+00  0.00000000E+00 -8.16500000E+00
  3.13000000E+01
Nuclear GFac                               R   N=           6
  0.00000000E+00  2.79284600E+00  2.79284600E+00  2.79284600E+00  8.21874000E-01
  2.10639900E+00
MicOpt                                     I   N=           6
          -1          -1          -1          -1          -1          -1
Number of contracted shells                I               27
Number of primitive shells                 I               71
Pure/Cartesian d shells                    I                1
Pure/Cartesian f shells                    I                0
Highest angular momentum                   I                2
Largest degree of contraction              I                8
Shell types                                I   N=          27
           0          -1          -1           2           0           0
           0           0           0           0           0          -1
          -1          -1           2           0           0           0
           0           0           0           1           1           1
           1           2           2
Number of primitives per shell             I   N=          27
           6           3           1           1           3           1
           3           1           3           1           6           6
           3           1           1           8           2           1
           1           1           1           6           3           1
           1           5           1
Shell to atom map                          I   N=          27
           1           1           1           1           2           2
           3           3           4           4           5           5
           5           5           5           6           6           6
           6           6           6           6           6           6
           6           6           6
Primitive exponents                        R   N=          71
  3.04752488E+03  4.57369518E+02  1.03948685E+02  2.92101553E+01  9.28666296E+00
  3.16392696E+00  7.86827235E+00  1.88128854E+00  5.44249258E-01  1.68714478E-01
  8.00000000E-01  1.87311370E+01  2.82539436E+00  6.40121692E-01  1.61277759E-01
  1.87311370E+01  2.82539436E+00  6.40121692E-01  1.61277759E-01  1.87311370E+01
  2.82539436E+00  6.40121692E-01  1.61277759E-01  2.51801000E+04  3.78035000E+03
  8.60474000E+02  2.42145000E+02  7.73349000E+01  2.62470000E+01  4.91765000E+02
  1.16984000E+02  3.74153000E+01  1.37834000E+01  5.45215000E+00  2.22588000E+00
  3.18649000E+00  1.14427000E+00  4.20377000E-01  1.42657000E-01  7.50000000E-01
  5.74300000E+05  8.90700000E+04  2.02100000E+04  5.73600000E+03  1.89900000E+03
  6.98700000E+02  2.77800000E+02  1.15200000E+02  3.59700000E+01  1.55000000E+01
  4.77100000E+00  2.07700000E+00  4.21100000E-01  1.61000000E-01  4.40600000E+03
  1.04200000E+03  3.32100000E+02  1.21900000E+02  4.92400000E+01  2.11600000E+01
  8.83600000E+00  3.82900000E+00  1.64300000E+00  4.65000000E-01  1.42700000E-01
  1.08400000E+02  3.07100000E+01  1.06600000E+01  3.85100000E+00  1.31700000E+00
  3.38000000E-01
Contraction coefficients                   R   N=          71
  1.83473713E-03  1.40373228E-02  6.88426223E-02  2.32184443E-01  4.67941348E-01
  3.62311985E-01 -1.19332420E-01 -1.60854152E-01  1.14345644E+00  1.00000000E+00
  1.00000000E+00  3.34946043E-02  2.34726953E-01  8.13757326E-01  1.00000000E+00
  3.34946043E-02  2.34726953E-01  8.13757326E-01  1.00000000E+00  3.34946043E-02
  2.34726953E-01  8.13757326E-01  1.00000000E+00  1.83295985E-03  1.40341988E-02
  6.90973943E-02  2.37451980E-01  4.83033960E-01  3.39855972E-01 -2.29739142E-03
 -3.07137189E-02 -1.12528069E-01  4.50163278E-02  5.89353363E-01  4.65206287E-01
 -2.51828028E-01  6.15892514E-02  1.06018433E+00  1.00000000E+00  1.00000000E+00
  2.10682753E-04  1.61271721E-03  8.36010959E-03  3.40275588E-02  1.08515001E-01
  2.67396944E-01  4.29567221E-01  2.86993117E-01  2.77772914E-01  7.47057636E-01
  1.00000000E+00  1.00000000E+00  1.00000000E+00  1.00000000E+00  1.39552623E-03
  1.23748283E-02  6.10175241E-02  2.26775547E-01  4.05975875E-01  4.50692322E-01
  2.92018585E-01  5.30220862E-01  2.75287404E-01  1.00000000E+00  1.00000000E+00
  2.15879371E-02  1.34176036E-01  3.67870647E-01  4.91895206E-01  2.68321979E-01
  1.00000000E+00
P(S=P) Contraction coefficients            R   N=          71
  0.00000000E+00  0.00000000E+00  0.00000000E+00  0.00000000E+00  0.00000000E+00
  0.00000000E+00  6.89990666E-02  3.16423961E-01  7.44308291E-01  1.00000000E+00
  0.00000000E+00  0.00000000E+00  0.00000000E+00  0.00000000E+00  0.00000000E+00
  0.00000000E+00  0.00000000E+00  0.00000000E+00  0.00000000E+00  0.00000000E+00
  0.00000000E+00  0.00000000E+00  0.00000000E+00  0.00000000E+00  0.00000000E+00
  0.00000000E+00  0.00000000E+00  0.00000000E+00  0.00000000E+00  3.98940088E-03
  3.03177067E-02  1.29880029E-01  3.27951072E-01  4.53527100E-01  2.52154056E-01
 -1.42993147E-02  3.23572333E-01  7.43507765E-01  1.00000000E+00  0.00000000E+00
  0.00000000E+00  0.00000000E+00  0.00000000E+00  0.00000000E+00  0.00000000E+00
  0.00000000E+00  0.00000000E+00  0.00000000E+00  0.00000000E+00  0.00000000E+00
  0.00000000E+00  0.00000000E+00  0.00000000E+00  0.00000000E+00  0.00000000E+00
  0.00000000E+00  0.00000000E+00  0.00000000E+00  0.00000000E+00  0.00000000E+00
  0.00000000E+00  0.00000000E+00  0.00000000E+00  0.00000000E+00  0.00000000E+00
  0.00000000E+00  0.00000000E+00  0.00000000E+00  0.00000000E+00  0.00000000E+00
  0.00000000E+00
Coordinates of each shell                  R   N=          81
 -2.91447573E+00  1.95235673E+00 -4.82802711E+00 -2.91447573E+00  1.95235673E+00
 -4.82802711E+00 -2.91447573E+00  1.95235673E+00 -4.82802711E+00 -2.91447573E+00
  1.95235673E+00 -4.82802711E+00 -1.96239310E+00  2.91029632E-01 -4.23198714E+00
 -1.96239310E+00  2.91029632E-01 -4.23198714E+00 -1.95250606E+00  3.31389123E+00
 -5.94273385E+00 -1.95250606E+00  3.31389123E+00 -5.94273385E+00 -4.83276089E+00
  2.24511113E+00 -4.32180533E+00 -4.83276089E+00  2.24511113E+00 -4.32180533E+00
 -1.58943883E+00  4.07128326E+00 -1.07623500E+00 -1.58943883E+00  4.07128326E+00
 -1.07623500E+00 -1.58943883E+00  4.07128326E+00 -1.07623500E+00 -1.58943883E+00
  4.07128326E+00 -1.07623500E+00 -1.58943883E+00  4.07128326E+00 -1.07623500E+00
 -4.30866022E+00 -2.77126020E-01 -8.77553307E+00 -4.30866022E+00 -2.77126020E-01
 -8.77553307E+00 -4.30866022E+00 -2.77126020E-01 -8.77553307E+00 -4.30866022E+00
 -2.77126020E-01 -8.77553307E+00 -4.30866022E+00 -2.77126020E-01 -8.77553307E+00
 -4.30866022E+00 -2.77126020E-01 -8.77553307E+00 -4.30866022E+00 -2.77126020E-01
 -8.77553307E+00 -4.30866022E+00 -2.77126020E-01 -8.77553307E+00 -4.30866022E+00
 -2.77126020E-01 -8.77553307E+00 -4.30866022E+00 -2.77126020E-01 -8.77553307E+00
 -4.30866022E+00 -2.77126020E-01 -8.77553307E+00 -4.30866022E+00 -2.77126020E-01
 -8.77553307E+00
Constraint Structure                       R   N=          18
 -2.91447573E+00  1.95235673E+00 -4.82802711E+00 -1.96239310E+00  2.91029632E-01
 -4.23198714E+00 -1.95250606E+00  3.31389123E+00 -5.94273385E+00 -4.83276089E+00
  2.24511113E+00 -4.32180533E+00 -1.58943883E+00  4.07128326E+00 -1.07623500E+00
 -4.30866022E+00 -2.77126020E-01 -8.77553307E+00
Num ILSW                                   I              100
ILSW                                       I   N=         100
           0           1           0           0           2           0
           0           0           0           0           0          -1
           0           0           0           0           2           0
           0           0           0           0           1           0
           1           1           0           0           0           0
           0           0      100000           0          -1           0
           0           0           0           0           0           0
           0           0           0           1           0           0
           0           0           1           0           0           0
           0           0           4          40           0           0
           0           0           0           0           0           0
           0           0           0           0           0           0
           0           0           0           0           0           0
           0           0           0           0           0           0
           0           0           0           0           0           0
           0           0           0           0           0           0
           0           0           0           0
Num RLSW                                   I               40
RLSW                                       R   N=          40
  1.00000000E+00  1.00000000E+00  1.00000000E+00  1.00000000E+00  1.00000000E+00
  0.00000000E+00  0.00000000E+00  1.00000000E+00  0.00000000E+00  0.00000000E+00
  0.00000000E+00  0.00000000E+00  1.00000000E+00  0.00000000E+00  0.00000000E+00
  0.00000000E+00  0.00000000E+00  1.00000000E+00  0.00000000E+00  0.00000000E+00
  0.00000000E+00  0.00000000E+00  1.00000000E+00  0.00000000E+00  0.00000000E+00
  0.00000000E+00  0.00000000E+00  1.00000000E+00  0.00000000E+00  0.00000000E+00
  0.00000000E+00  0.00000000E+00  1.00000000E+00  0.00000000E+00  0.00000000E+00
  0.00000000E+00  0.00000000E+00  0.00000000E+00  1.00000000E+00  1.00000000E+00
MxBond                                     I                5
NBond                                      I   N=           6
           5           1           1           1           1           1
IBond                                      I   N=          30
           2           3           4           5           6           1
           0           0           0           0           1           0
           0           0           0           1           0           0
           0           0           1           0           0           0
           0           1           0           0           0           0
RBond                                      R   N=          30
  1.00000000E+00  1.00000000E+00  1.00000000E+00  1.00000000E+00  1.00000000E+00
  1.00000000E+00  0.00000000E+00  0.00000000E+00  0.00000000E+00  0.00000000E+00
  1.00000000E+00  0.00000000E+00  0.00000000E+00  0.00000000E+00  0.00000000E+00
  1.00000000E+00  0.00000000E+00  0.00000000E+00  0.00000000E+00  0.00000000E+00
  1.00000000E+00  0.00000000E+00  0.00000000E+00  0.00000000E+00  0.00000000E+00
  1.00000000E+00  0.00000000E+00  0.00000000E+00  0.00000000E+00  0.00000000E+00
Virial Ratio                               R      2.003853535479779E+00
SCF Energy                                 R     -3.069026300419305E+03
Total Energy                               R     -3.069026300419305E+03
RMS Force                                  R      3.935403368369622E-06
RMS Density                                R      3.931003768431109E-10
External E-field                           R   N=          35
  0.00000000E+00  0.00000000E+00  0.00000000E+00  0.00000000E+00  0.00000000E+00
  0.00000000E+00  0.00000000E+00  0.00000000E+00  0.00000000E+00  0.00000000E+00
  0.00000000E+00  0.00000000E+00  0.00000000E+00  0.00000000E+00  0.00000000E+00
  0.00000000E+00  0.00000000E+00  0.00000000E+00  0.00000000E+00  0.00000000E+00
  0.00000000E+00  0.00000000E+00  0.00000000E+00  0.00000000E+00  0.00000000E+00
  0.00000000E+00  0.00000000E+00  0.00000000E+00  0.00000000E+00  0.00000000E+00
  0.00000000E+00  0.00000000E+00  0.00000000E+00  0.00000000E+00  0.00000000E+00
IOpCl                                      I                0
IROHF                                      I                0
Alpha Orbital Energies                     R   N=          70
 -4.89822472E+02 -1.04570682E+02 -6.42345093E+01 -5.83735230E+01 -5.83729050E+01
 -5.83729050E+01 -1.11815636E+01 -1.03015117E+01 -9.48117741E+00 -7.76991636E+00
 -7.76874884E+00 -7.76874883E+00 -7.22686977E+00 -7.22406323E+00 -7.22406321E+00
 -2.96428553E+00 -2.96310964E+00 -2.96310962E+00 -2.95992339E+00 -2.95992339E+00
 -8.58737236E-01 -7.93600250E-01 -7.27565140E-01 -4.94158572E-01 -4.94141613E-01
 -2.72788178E-01 -2.24747482E-01 -2.24747237E-01 -1.97077115E-01 -1.97076780E-01
 -1.78949766E-01  2.72514472E-01  3.78467955E-01  4.48776123E-01  4.48780628E-01
  6.06979315E-01  7.54263746E-01  7.84889228E-01  7.84902200E-01  8.36221324E-01
  8.45346024E-01  8.45346877E-01  8.79025582E-01  8.79025689E-01  8.97219987E-01
  8.97222416E-01  9.40679426E-01  9.88791147E-01  9.88798743E-01  1.00029853E+00
  1.13779609E+00  1.31517289E+00  1.31519599E+00  1.36417514E+00  1.40392484E+00
  1.40392504E+00  1.41238746E+00  1.41239040E+00  1.56889447E+00  1.72017292E+00
  2.02414122E+00  2.07155922E+00  2.07156477E+00  2.47381451E+00  2.67464575E+00
  2.67472790E+00  4.70033031E+00  4.92704803E+00  9.48038863E+00  7.41069134E+01
Alpha MO coefficients                      R   N=        4900
  3.14095439E-05  1.85322832E-04  1.12741738E-05  1.80169170E-05  3.19013509E-05
 -7.43756412E-04 -7.77702521E-05 -1.24256608E-04 -2.20014694E-04  6.26783767E-05
  4.55365565E-05 -1.45398319E-05 -2.03191825E-05 -3.59774002E-05 -5.75302705E-05
 -2.94141063E-05  4.51679013E-04 -2.94149734E-05  4.51675613E-04 -2.94281033E-05
  4.51622980E-04  9.44594858E-07  2.43670440E-07  3.65155116E-06  5.83941720E-06
  1.03392452E-05  4.41067201E-06 -1.60055860E-05 -2.55950565E-05 -4.53184037E-05
 -4.86803046E-07  2.63631325E-06  4.21135708E-06  7.45554617E-06  7.49171784E-06
  1.26317594E-05  3.06494922E-05  6.09291514E-06  1.07881863E-05  1.72535374E-05
  9.94910636E-01  3.26609591E-02 -4.37628634E-02 -4.71144697E-02 -2.62134042E-02
 -1.81629578E-02  3.24850248E-06  5.19462192E-06  9.19756977E-06 -1.07283079E-05
 -1.71553814E-05 -3.03752435E-05  5.16840306E-05  8.26470053E-05  1.46334418E-04
 -1.01958356E-04 -1.63041398E-04 -2.88680279E-04  4.34935825E-02  4.34958246E-02
  4.35036857E-02  2.65868178E-06  4.70744920E-06  7.52789179E-06  1.05310216E-02
  1.05160920E-02  1.04637489E-02 -1.77027575E-05 -3.13444147E-05 -5.01244171E-05
 -7.62252876E-06 -5.68883861E-05  3.59543415E-07  5.77192919E-07  1.02184606E-06
  1.82293718E-04 -5.90484250E-06 -9.45880682E-06 -1.67460222E-05 -1.31230262E-05
 -7.95458295E-06  1.01684861E-05  6.12880830E-06  1.08519692E-05  1.73545635E-05
  2.78810657E-06 -9.45822276E-05  2.78846866E-06 -9.45812392E-05  2.78852463E-06
 -9.45749552E-05  9.96118137E-01  1.46425282E-02 -5.78796128E-06 -9.25610835E-06
 -1.63889902E-05 -1.77171775E-02  9.15424898E-06  1.46390287E-05  2.59199416E-05
  1.45379490E-03 -1.42827968E-05 -2.28396113E-05 -4.04398854E-05  6.26393866E-03
  6.26437455E-03  6.26590356E-03  5.17158458E-07  9.15696770E-07  1.46417423E-06
 -2.59704408E-06 -1.60782360E-05  5.14484335E-05  4.69036285E-05  1.00932959E-05
  1.09565017E-04 -2.08496127E-07 -3.33382615E-07 -5.90287402E-07  8.32355270E-07
  1.33092415E-06  2.35653499E-06 -3.33909466E-06 -5.33909245E-06 -9.45340684E-06
  2.74702857E-06  4.39195199E-06  7.77643690E-06 -5.46855197E-05 -5.45408159E-05
 -5.40335839E-05  1.71551651E-07  3.03744731E-07  4.85735015E-07 -4.11863173E-05
 -4.24145436E-05 -4.67201542E-05 -1.45620927E-06 -2.57833374E-06 -4.12312386E-06
  2.51036564E-04  1.43730524E-03  8.74334726E-05  1.39721692E-04  2.47396077E-04
 -5.92768429E-03 -6.39848293E-04 -1.02233434E-03 -1.81019272E-03  5.04717311E-04
  3.75389859E-04 -7.78525072E-05 -1.53296945E-04 -2.71429642E-04 -4.34033417E-04
 -2.40025170E-04  3.62671752E-03 -2.40032053E-04  3.62669019E-03 -2.40136017E-04
  3.62626717E-03  8.18684830E-06 -2.08042805E-07  2.89102773E-05  4.62321770E-05
  8.18584710E-05  4.33905584E-05 -1.27263276E-04 -2.03510884E-04 -3.60334709E-04
  1.39283438E-05  1.72136406E-05  2.74913535E-05  4.86673809E-05  5.31786618E-05
  9.42643139E-05  2.38285211E-04  4.87025092E-05  8.62332309E-05  1.37912475E-04
 -4.23800247E-01  1.16457137E+00 -2.68433343E-01 -3.63768436E-01 -2.02246198E-01
 -1.44751626E-01  7.61294037E-05  1.21740618E-04  2.15552421E-04 -7.89544492E-05
 -1.26253735E-04 -2.23544434E-04  4.16048556E-04  6.65295818E-04  1.17796980E-03
 -8.30659373E-04 -1.32830584E-03 -2.35189160E-03  3.34610294E-01  3.34631071E-01
  3.34703916E-01  2.46367273E-05  4.36216502E-05  6.97573393E-05  8.31827622E-02
  8.30594029E-02  8.26269049E-02 -1.46273749E-04 -2.58991565E-04 -4.14165979E-04
 -3.97777650E-05  6.45420334E-04  8.94727060E-06  1.43513042E-05  2.54071968E-05
  5.12204565E-04  7.31599144E-04  1.16962092E-03  2.07094451E-03 -3.23679831E-04
 -3.97730648E-04 -6.57466187E-04 -8.78401678E-05 -1.55526757E-04 -2.48725816E-04
  3.33622648E-04 -1.41272741E-03  3.33625486E-04 -1.41271761E-03  3.33657973E-04
 -1.41256630E-03 -1.86966710E-06  1.41210630E-05 -1.44194091E-05 -2.30590325E-05
 -4.08281666E-05  6.68713087E-05  6.22472196E-05  9.95425549E-05  1.76248933E-04
 -3.39377371E-04  5.88843124E-05  9.41757397E-05  1.66753922E-04 -7.54875997E-07
 -2.94367239E-05 -1.29987807E-04 -3.40042525E-05 -6.02084395E-05 -9.62863773E-05
  3.14091788E-06 -7.24797043E-04  1.74117186E-03  1.16409994E-03 -2.05071937E-03
  9.27823465E-03  2.87122522E-01  4.59148456E-01  8.12963804E-01  1.82057410E-02
  2.91134849E-02  5.15480545E-02 -5.41285462E-03 -8.65588925E-03 -1.53260354E-02
  2.89746623E-03  4.63342905E-03  8.20390834E-03 -1.62802769E-03 -1.65297287E-03
 -1.74043203E-03 -2.95796646E-05 -5.23735594E-05 -8.37520829E-05 -2.91313169E-03
 -2.72940798E-03 -2.08526474E-03  2.17856391E-04  3.85734987E-04  6.16840658E-04
 -7.85686141E-09 -1.76535791E-08  5.55835956E-05 -7.58326288E-06 -1.53478957E-05
  1.73639579E-07 -3.28523782E-04  4.48228322E-05  9.07184205E-05  1.53903301E-04
 -6.87840895E-05 -8.51755019E-05  6.67590813E-05  1.20078567E-04 -8.82632760E-06
  1.65236282E-04 -3.70344355E-04  1.76617353E-04 -3.95846462E-04 -3.41852736E-04
  7.66027156E-04 -2.71059559E-11  1.01232732E-09  1.74160414E-05 -2.37653168E-06
 -4.80969739E-06  2.24096515E-09 -9.22743579E-05  1.25905412E-05  2.54813134E-05
 -1.30059820E-08  2.15493943E-04 -2.93951439E-05 -5.94930165E-05 -2.28656321E-05
  7.48852147E-06  1.53779143E-05 -1.48232785E-05 -2.61412354E-05  6.32953243E-06
 -9.36309813E-10 -4.87529947E-09  1.72215405E-08  1.24777189E-08  6.13408109E-11
  4.57756181E-08  9.33603152E-01 -1.27374087E-01 -2.57791153E-01  5.89813185E-02
 -8.04698546E-03 -1.62862143E-02 -1.65726487E-02  2.26105036E-03  4.57611790E-03
  6.99371834E-03 -9.54170949E-04 -1.93113732E-03 -1.44382648E-06 -8.68495586E-07
  2.26153006E-06 -3.29413952E-06 -5.64070350E-06  2.82189976E-06  4.61091615E-05
 -2.87447085E-06 -4.32870624E-05  5.18995555E-05  8.99598008E-05 -3.53084775E-05
  4.44195825E-10  5.19646587E-10 -9.03423880E-07  5.07825955E-05 -2.83636799E-05
 -1.12191173E-08  5.33732245E-06 -3.00127721E-04  1.67626056E-04 -3.03954665E-06
  1.54400872E-04 -1.51357444E-04 -1.54640859E-05  6.39144684E-06  1.06234126E-04
 -2.99334449E-04  6.70786421E-04  2.92762767E-04 -6.56049904E-04  6.57019993E-06
 -1.47204125E-05  2.22783832E-11  3.20504143E-10 -2.82849544E-07  1.59080086E-05
 -8.88438453E-06  6.71230850E-10  1.49857697E-06 -8.42840079E-05  4.70712529E-05
 -4.31018028E-09 -3.49936188E-06  1.96829864E-04 -1.09924941E-04  4.10720150E-07
 -2.83998112E-05  2.79912327E-05 -5.01893409E-06  3.37929438E-06 -1.97464632E-05
  2.36126143E-10  3.74326126E-10 -2.29283463E-09 -1.66737849E-09 -2.31075365E-10
 -5.52539228E-09 -1.51655056E-02  8.52775135E-01 -4.76277082E-01 -9.58096128E-04
  5.38749263E-02 -3.00892835E-02  2.69207313E-04 -1.51378452E-02  8.45452578E-03
 -1.13606481E-04  6.38822520E-03 -3.56784017E-03  7.59534163E-09 -4.40936327E-06
  4.40857650E-06 -3.84828174E-06  2.30255273E-06 -3.14733555E-06 -6.36451257E-07
  8.18016397E-05 -8.11582562E-05  4.29512791E-05 -2.62405058E-05  5.76154863E-05
  9.95947828E-01  2.69259837E-02 -1.74686705E-05 -2.80387077E-05 -4.96438847E-05
 -1.29737173E-02  6.31184926E-05  1.01432731E-04  1.79566632E-04 -1.33661613E-03
 -1.48496410E-03 -2.00491373E-03 -1.75865276E-04 -3.11390783E-04 -4.97908924E-04
  3.05270225E-05  2.51670522E-03  3.05212377E-05  2.51669669E-03  3.04650379E-05
  2.51646452E-03 -8.09516660E-06 -1.87212740E-05  1.70393240E-05  2.72488450E-05
  4.82468930E-05 -2.57645797E-04 -6.02392380E-05 -9.63316010E-05 -1.70564580E-04
  7.39277591E-04 -1.74806690E-04 -2.79560753E-04 -4.94996135E-04 -3.52180847E-05
  1.48887346E-05  1.90549012E-04  5.94056356E-05  1.05184186E-04  1.68211180E-04
  4.40217779E-07  6.95276123E-06 -3.82103006E-05  4.75153637E-05 -5.76700393E-04
  1.20494640E-03  5.31879138E-06  8.50460464E-06  1.50582220E-05 -1.70591064E-05
 -2.72769577E-05 -4.82964857E-05  2.10455713E-05  3.36410732E-05  5.95652089E-05
  2.50928460E-04  4.01289512E-04  7.10519170E-04  2.99742687E-05  2.07858398E-05
 -1.14274577E-05 -1.08948516E-05 -1.92903587E-05 -3.08479066E-05 -2.17583911E-04
 -1.17089836E-04  2.35236525E-04  1.19160579E-04  2.10984907E-04  3.37392694E-04
 -8.22897855E-06 -8.27225678E-05 -1.63557364E-05 -2.61655265E-05 -4.63273882E-05
 -4.91449028E-04  2.90782154E-04  4.65068372E-04  8.23441612E-04  8.51691024E-05
  1.00231578E-04  1.53056180E-04  1.78648733E-05  3.16306918E-05  5.05841629E-05
 -1.22446843E-04  5.73583307E-04 -1.22447620E-04  5.73575525E-04 -1.22457939E-04
  5.73568025E-04 -2.86756108E-01  1.03066340E+00 -4.01541532E-04 -6.42153951E-04
 -1.13700867E-03  2.58450226E-02 -1.58713090E-04 -2.53807905E-04 -4.49394741E-04
 -6.32771116E-03  2.90765730E-04  4.64973741E-04  8.23286355E-04 -1.55911189E-03
 -1.56294985E-03 -1.57640788E-03 -4.55230704E-06 -8.06039137E-06 -1.28875780E-05
  8.73866551E-07  4.56255919E-05 -1.24711156E-04 -3.69350679E-05 -1.28738359E-04
 -2.34639135E-05  1.46470377E-06  2.34212209E-06  4.14699285E-06 -4.76232253E-06
 -7.61513791E-06 -1.34834710E-05  1.17533782E-05  1.87929535E-05  3.32755306E-05
  5.19232659E-05  8.30362221E-05  1.47021609E-04  9.78722885E-05  9.49751000E-05
  8.48185126E-05 -3.43513671E-06 -6.08217557E-06 -9.72618715E-06  6.67044796E-05
  9.34501521E-05  1.87214816E-04  3.17126732E-05  5.61498883E-05  8.97909782E-05
 -3.57519300E-04 -1.96513088E-03 -1.23526117E-04 -1.97398712E-04 -3.49521178E-04
  8.24916962E-03  9.78735830E-04  1.56388638E-03  2.76908477E-03 -6.53166301E-04
 -4.97124153E-04  4.97361038E-05  1.84960510E-04  3.27493712E-04  5.23683738E-04
  3.30636119E-04 -5.23600124E-03  3.30645418E-04 -5.23596147E-03  3.30785107E-04
 -5.23534573E-03 -1.70213345E-05  2.78180030E-05 -3.44177183E-05 -5.50392683E-05
 -9.74521768E-05 -1.19236390E-04  1.70562139E-04  2.72751298E-04  4.82930925E-04
 -8.46532456E-05 -1.01197765E-05 -1.61332549E-05 -2.85524973E-05 -3.85554533E-05
 -9.30008616E-05 -2.83855233E-04 -6.45401947E-05 -1.14275627E-04 -1.82759627E-04
  1.68074771E-01 -9.47323367E-01  8.79546566E-01  1.26517548E+00  3.03531162E-01
  2.12407731E-01 -2.06989436E-04 -3.30998535E-04 -5.86062620E-04  5.30522744E-04
  8.48362385E-04  1.50210207E-03 -5.65809113E-04 -9.04775324E-04 -1.60199133E-03
  1.23555212E-03  1.97576913E-03  3.49828668E-03 -4.48727452E-01 -4.48664696E-01
 -4.48444661E-01  7.44177995E-05  1.31762948E-04  2.10709781E-04 -1.21250914E-01
 -1.21063572E-01 -1.20406747E-01  2.22143297E-04  3.93325801E-04  6.28984401E-04
 -8.66786623E-05 -2.19020278E-04 -6.66357736E-05 -1.06536810E-04 -1.88636530E-04
  1.68004346E-03 -1.06470098E-04 -1.70426441E-04 -3.01738396E-04 -2.54089559E-04
 -2.57686721E-04 -2.70280331E-04 -4.26295984E-06 -7.54557182E-06 -1.20598833E-05
  5.41929819E-05 -1.03915420E-03  5.41970132E-05 -1.03914358E-03  5.41952014E-05
 -1.03907719E-03 -4.69524487E-04  1.67807427E-03  2.91947660E-01  4.66873672E-01
  8.26652618E-01 -1.06878900E-03  6.30565133E-03  1.00838043E-02  1.78545149E-02
  8.50596757E-04 -1.63371868E-03 -2.61258233E-03 -4.62586987E-03  1.53207366E-04
  1.28299942E-04  4.09793763E-05 -2.95301003E-05 -5.22862886E-05 -8.36174500E-05
 -8.08074718E-06 -3.60439024E-05  1.74255640E-04 -1.78471248E-05 -2.11876768E-04
  1.04372860E-03 -2.26654087E-06 -3.62419952E-06 -6.41700278E-06  8.11097170E-06
  1.29694472E-05  2.29636850E-05 -4.21006458E-05 -6.73183057E-05 -1.19193737E-04
  3.88941265E-05  6.21859966E-05  1.10106835E-04 -1.31870028E-04 -1.31131319E-04
 -1.28542546E-04  8.75512258E-07  1.55014669E-06  2.47906044E-06 -3.47036048E-04
 -3.56441750E-04 -3.89411488E-04 -1.11505061E-05 -1.97428240E-05 -3.15723521E-05
  6.88901018E-10  1.21346331E-09 -7.10104056E-06  1.00141506E-06  1.93888623E-06
 -2.11793793E-08  7.02864435E-05 -9.92275480E-06 -1.92112919E-05  3.68224777E-05
 -4.92222335E-06 -3.18940479E-05  3.71053440E-05  6.48358025E-05 -2.41327474E-05
 -6.07593033E-05  2.44907116E-04 -6.37647764E-05  2.57015272E-04  1.24517034E-04
 -5.01904758E-04  3.87640797E-09 -1.48843024E-08  9.49564561E-01 -1.34122178E-01
 -2.59607279E-01  5.05658027E-09  1.96224007E-02 -2.77158620E-03 -5.36469008E-03
  3.16797863E-09 -4.44975946E-03  6.28509937E-04  1.21654536E-03 -4.82082764E-05
  9.77811052E-06  3.84213569E-05 -4.25717179E-05 -7.46096811E-05  2.53670839E-05
  2.85025773E-11  1.05300423E-10 -5.52430896E-10  6.43855751E-11 -2.40242662E-10
 -1.20065729E-09  2.20405822E-06 -3.11320045E-07 -6.02587004E-07 -7.99719421E-06
  1.12959289E-06  2.18642543E-06  5.04557787E-05 -7.12689851E-06 -1.37947359E-05
 -1.02001683E-04  1.44084215E-05  2.78887244E-05  2.48117000E-06  1.20130723E-07
 -2.60003801E-06  3.31332795E-06  5.75958008E-06 -2.46914501E-06 -1.62179205E-05
 -7.13929958E-07  1.69344250E-05 -2.15395409E-05 -3.74457218E-05  1.60161757E-05
 -3.74876734E-10 -1.31795108E-09  7.75411584E-08 -6.49364529E-06  3.63903683E-06
  9.88460554E-09 -7.68424694E-07  6.42459862E-05 -3.60099307E-05 -3.51307972E-07
  6.06149517E-05 -6.02658745E-05  2.82635594E-05 -1.69241519E-05  4.24868020E-05
  1.08711854E-04 -4.38086690E-04 -1.06977625E-04  4.31085371E-04 -1.73476844E-06
  6.98966189E-06  2.78425897E-10 -1.06263147E-09 -1.04014933E-02  8.66595421E-01
 -4.85758934E-01  3.64733774E-10 -2.14942968E-04  1.79078691E-02 -1.00380259E-02
 -2.71875757E-10  4.87427330E-05 -4.06095208E-03  2.27631487E-03  5.10634776E-07
 -7.25996526E-05  7.20880918E-05 -2.79218190E-05  1.68570277E-05 -5.07663015E-05
 -2.54129596E-11 -1.17605623E-10  5.70421197E-10 -9.35392111E-11 -2.12558105E-09
  6.78464746E-09 -2.41566787E-08  2.01139494E-06 -1.12750689E-06  8.76495228E-08
 -7.29814334E-06  4.09104344E-06 -5.52999060E-07  4.60458863E-05 -2.58114721E-05
  1.11806290E-06 -9.30891299E-05  5.21824541E-05 -1.70170316E-08  4.99981309E-06
 -4.98404589E-06  3.13104985E-06 -1.85630053E-06  3.52108962E-06  1.07823499E-07
 -3.25549488E-05  3.24419066E-05 -2.02857800E-05  1.20285326E-05 -2.29214380E-05
  8.34748677E-06 -1.56154863E-04 -1.55512362E-05 -2.48848592E-05 -4.40598498E-05
 -2.67138359E-04 -2.91562850E-04 -4.66113711E-04 -8.25307253E-04  9.74457930E-05
  1.22859119E-04  2.11996703E-04  3.01457428E-05  5.33750585E-05  8.53590386E-05
 -1.26108369E-04  6.11879919E-04 -1.26109582E-04  6.11875699E-04 -1.26123647E-04
  6.11807978E-04  1.52409838E-06 -8.56616427E-06  7.85353526E-06  1.25591177E-05
  2.22371243E-05 -9.83798010E-06 -2.57998692E-05 -4.12576957E-05 -7.30504777E-05